TITLE="Riemann Problem 1D slice t=0.0022"
VARIABLES="x","rho","u","p","e","rho_ex","u_ex","p_ex","e_ex"
ZONE T="Numerical", I=100, F=POINT
0.02 1.97014 12.4297 959590 1.21767e+006 2 0 980000 1.225e+006
0.06 1.95805 17.5062 951360 1.21468e+006 2 0 980000 1.225e+006
0.1 1.94354 23.6253 941519 1.21109e+006 2 0 980000 1.225e+006
0.14 1.9268 30.7335 930197 1.20692e+006 2 0 980000 1.225e+006
0.18 1.90806 38.7455 917574 1.20224e+006 1.99803 0.815369 978650 1.22452e+006
0.22 1.88761 47.5598 903857 1.19709e+006 1.96174 15.9669 953855 1.21557e+006
0.26 1.86573 57.071 889253 1.19156e+006 1.92598 31.1184 929600 1.20666e+006
0.3 1.8427 67.1777 873956 1.1857e+006 1.89074 46.2699 905876 1.19778e+006
0.34 1.81877 77.7875 858140 1.17956e+006 1.85602 61.4214 882672 1.18893e+006
0.38 1.79415 88.8185 841958 1.1732e+006 1.82181 76.5729 859980 1.18012e+006
0.42 1.76903 100.199 825536 1.16665e+006 1.78811 91.7245 837790 1.17134e+006
0.46 1.74356 111.869 808985 1.15996e+006 1.75491 106.876 816092 1.16259e+006
0.5 1.71787 123.773 792394 1.15316e+006 1.7222 122.027 794878 1.15387e+006
0.54 1.69209 135.867 775839 1.14627e+006 1.68998 137.179 774138 1.14519e+006
0.58 1.66631 148.108 759384 1.13932e+006 1.65825 152.331 753864 1.13654e+006
0.62 1.64061 160.459 743086 1.13233e+006 1.62699 167.482 734047 1.12792e+006
0.66 1.61507 172.886 726992 1.12532e+006 1.59621 182.634 714677 1.11934e+006
0.7 1.58977 185.354 711146 1.11831e+006 1.5659 197.785 695748 1.11078e+006
0.74 1.56478 197.827 695590 1.11132e+006 1.53604 212.937 677250 1.10226e+006
0.78 1.54016 210.269 680366 1.10437e+006 1.50665 228.088 659175 1.09378e+006
0.82 1.51599 222.639 665514 1.09749e+006 1.47771 243.24 641515 1.08532e+006
0.86 1.49236 234.89 651080 1.09069e+006 1.44921 258.391 624263 1.0769e+006
0.9 1.46935 246.967 637116 1.08401e+006 1.42115 273.543 607409 1.06851e+006
0.94 1.44707 258.804 623678 1.07748e+006 1.39353 288.694 590947 1.06016e+006
0.98 1.42565 270.325 610835 1.07115e+006 1.36635 303.846 574869 1.05184e+006
1.02 1.40523 281.435 598665 1.06506e+006 1.33958 318.997 559168 1.04355e+006
1.06 1.386 292.024 587261 1.05927e+006 1.31324 334.149 543835 1.03529e+006
1.1 1.36813 301.964 576726 1.05386e+006 1.29271 346.13 531967 1.02878e+006
1.14 1.35185 311.114 567174 1.04888e+006 1.29271 346.13 531967 1.02878e+006
1.18 1.33738 319.325 558717 1.04443e+006 1.29271 346.13 531967 1.02878e+006
1.22 1.32489 326.46 551457 1.04057e+006 1.29271 346.13 531967 1.02878e+006
1.26 1.31455 332.414 545461 1.03736e+006 1.29271 346.13 531967 1.02878e+006
1.3 1.30637 337.141 540740 1.03481e+006 1.29271 346.13 531967 1.02878e+006
1.34 1.30028 340.674 537236 1.03292e+006 1.29271 346.13 531967 1.02878e+006
1.38 1.29604 343.132 534808 1.03162e+006 1.29271 346.13 531967 1.02878e+006
1.42 1.29332 344.707 533257 1.03079e+006 1.29271 346.13 531967 1.02878e+006
1.46 1.29172 345.623 532357 1.03033e+006 1.29271 346.13 531967 1.02878e+006
1.5 1.29087 346.097 531891 1.0301e+006 1.29271 346.13 531967 1.02878e+006
1.54 1.29047 346.307 531683 1.03002e+006 1.29271 346.13 531967 1.02878e+006
1.58 1.2903 346.378 531613 1.03002e+006 1.29271 346.13 531967 1.02878e+006
1.62 1.29023 346.385 531605 1.03006e+006 1.29271 346.13 531967 1.02878e+006
1.66 1.29021 346.367 531621 1.03011e+006 1.29271 346.13 531967 1.02878e+006
1.7 1.29019 346.343 531643 1.03016e+006 1.29271 346.13 531967 1.02878e+006
1.74 1.29017 346.318 531666 1.03022e+006 1.29271 346.13 531967 1.02878e+006
1.78 1.29014 346.295 531687 1.03029e+006 1.29271 346.13 531967 1.02878e+006
1.82 1.2901 346.275 531706 1.03035e+006 1.29271 346.13 531967 1.02878e+006
1.86 1.29006 346.256 531722 1.03042e+006 1.29271 346.13 531967 1.02878e+006
1.9 1.29 346.239 531737 1.0305e+006 1.29271 346.13 531967 1.02878e+006
1.94 1.28994 346.224 531751 1.03057e+006 1.29271 346.13 531967 1.02878e+006
1.98 1.28986 346.21 531762 1.03066e+006 1.29271 346.13 531967 1.02878e+006
2.02 1.28977 346.198 531773 1.03075e+006 1.29271 346.13 531967 1.02878e+006
2.06 1.28967 346.186 531783 1.03085e+006 1.29271 346.13 531967 1.02878e+006
2.1 1.28956 346.176 531791 1.03096e+006 1.29271 346.13 531967 1.02878e+006
2.14 1.28943 346.166 531799 1.03108e+006 1.29271 346.13 531967 1.02878e+006
2.18 1.28927 346.157 531806 1.03121e+006 1.29271 346.13 531967 1.02878e+006
2.22 1.2891 346.149 531812 1.03136e+006 1.29271 346.13 531967 1.02878e+006
2.26 1.28891 346.142 531817 1.03153e+006 1.29271 346.13 531967 1.02878e+006
2.3 1.28873 346.134 531822 1.03168e+006 1.29271 346.13 531967 1.02878e+006
2.34 1.28866 346.128 531826 1.03174e+006 1.29271 346.13 531967 1.02878e+006
2.38 1.28894 346.122 531830 1.03153e+006 1.29271 346.13 531967 1.02878e+006
2.42 1.29006 346.116 531834 1.03063e+006 1.29271 346.13 531967 1.02878e+006
2.46 1.29289 346.11 531837 1.02839e+006 1.29271 346.13 531967 1.02878e+006
2.5 1.2987 346.105 531840 1.02379e+006 1.29271 346.13 531967 1.02878e+006
2.54 1.30912 346.1 531842 1.01564e+006 1.29271 346.13 531967 1.02878e+006
2.58 1.32584 346.095 531844 1.00284e+006 1.29271 346.13 531967 1.02878e+006
2.62 1.35015 346.091 531846 984789 1.29271 346.13 531967 1.02878e+006
2.66 1.38244 346.087 531847 961793 1.29271 346.13 531967 1.02878e+006
2.7 1.42185 346.082 531848 935136 1.29271 346.13 531967 1.02878e+006
2.74 1.46626 346.078 531849 906815 1.29271 346.13 531967 1.02878e+006
2.78 1.51261 346.075 531850 879026 1.71671 346.13 531967 774688
2.82 1.55757 346.071 531850 853653 1.71671 346.13 531967 774688
2.86 1.59819 346.067 531851 831957 1.71671 346.13 531967 774688
2.9 1.63246 346.064 531851 814494 1.71671 346.13 531967 774688
2.94 1.65951 346.06 531850 801217 1.71671 346.13 531967 774688
2.98 1.67954 346.057 531850 791662 1.71671 346.13 531967 774688
3.02 1.69348 346.053 531849 785143 1.71671 346.13 531967 774688
3.06 1.70263 346.05 531848 780921 1.71671 346.13 531967 774688
3.1 1.70832 346.046 531847 778318 1.71671 346.13 531967 774688
3.14 1.71169 346.043 531845 776783 1.71671 346.13 531967 774688
3.18 1.71361 346.039 531843 775909 1.71671 346.13 531967 774688
3.22 1.71468 346.035 531841 775422 1.71671 346.13 531967 774688
3.26 1.71528 346.031 531838 775149 1.71671 346.13 531967 774688
3.3 1.71562 346.027 531836 774991 1.71671 346.13 531967 774688
3.34 1.71582 346.023 531833 774894 1.71671 346.13 531967 774688
3.38 1.71596 346.019 531829 774829 1.71671 346.13 531967 774688
3.42 1.71605 346.014 531825 774782 1.71671 346.13 531967 774688
3.46 1.71611 346.009 531820 774746 1.71671 346.13 531967 774688
3.5 1.71616 346.003 531814 774718 1.71671 346.13 531967 774688
3.54 1.71618 345.992 531804 774692 1.71671 346.13 531967 774688
3.58 1.71615 345.966 531775 774664 1.71671 346.13 531967 774688
3.62 1.71592 345.868 531665 774605 1.71671 346.13 531967 774688
3.66 1.71487 345.454 531198 774400 1.71671 346.13 531967 774688
3.7 1.71023 343.663 529180 773549 1.71671 346.13 531967 774688
3.74 1.69067 336.089 520710 769977 1.71671 346.13 531967 774688
3.78 1.61837 307.409 489692 756458 1.71671 346.13 531967 774688
3.82 1.43321 228.283 412136 718906 1.71671 346.13 531967 774688
3.86 1.19152 109.02 315567 662107 1 0 245000 612500
3.9 1.05156 30.2706 263166 625656 1 0 245000 612500
3.94 1.01031 6.04839 248557 615054 1 0 245000 612500
3.98 1.00186 1.08885 245638 612956 1 0 245000 612500
